[Molden Format]

[FREQ]
        1826.6104795931
        4070.6545456241
        4188.9434265160

[FR-COORD]
O          0.0000000000       -0.0000000000        0.1212603291
H          1.4249768389       -0.0000000000       -0.9622447097
H         -1.4249768389        0.0000000000       -0.9622447095

[FR-NORM-COORD]
vibration 1
          -0.0000000000        0.0000000000       -0.0704917602
           0.4296650452        0.0000000000        0.5593776942
          -0.4296650452        0.0000000000        0.5593776943
vibration 2
          -0.0000000002       -0.0000000000        0.0501514452
           0.5834058326        0.0000000000       -0.3979699155
          -0.5834058294        0.0000000000       -0.3979699130
vibration 3
          -0.0707543613       -0.0000000000       -0.0000000001
           0.5614615279       -0.0000000000       -0.4269166896
           0.5614615315       -0.0000000000        0.4269166919
